ID,NAME,CAS,Formula,MW,Den,MV,RI,MRP,DC,D,Melting,Boiling,Viscosity,lnP,Vap_P,Henrys_C,sigma1,sigma2,sigma3,sigma4,sigma5
452,benzonitrile,100-47-0,C7H5N,103,1,103,1.528,31.75,26,4.28,-13,190,1.45,1.45,0.48,3417.4,0,3.6454,8.6921,2.2047,0.0388
453,"1,4-butadiol",110-63-4,C4H10O2,90,1.017,89,1.446,23.63,32.9,2.58,20,235,19.37,-0.32,0.03,2275.41,0.4928,1.6653,8.5303,1.3305,1.0319
454,1-hexanol,111-27-3,C6H14O,102,0.814,126,1.418,31.63,13.3,1.65,-47,158,5.12,2.03,1.22,2001.85,0.3232,0.9139,14.095,0.8602,0.6183
455,n-butylacetate,123-86-4,C6H12O2,116,0.88,132,1.394,31.6,5.01,1.84,-74,126,0.69,0.69,5.38,1964.05,0,2.4408,12.3498,2.3513,0.2189
456,triethyl orthoformate,122-51-0,C7H16O3,148,0.893,166,1.39,39.34,4.779,1.67,-61,143,1.08,1.79,0.56,1758.45,0,2.3563,15.8811,1.8073,0.7333
457,"n,n-dimethylacetamide",127-19-5,C4H9NO,87,0.942,92.5,1.438,24.31,37.78,3.72,-20,165,0.63,-0.5,10.11,2548.2,0,2.8469,8.4654,0.781,1.1909
458,diisopropylether,108-20-3,C6H14O,102,0.724,141.1,1.368,31.8,4.04,1.13,-86,68,0.47,2.51,28.72,1792.09,0,0.7435,14.563,0.5696,0.49
459,2-propanol,67-63-0,C3H8O,60,0.785,76.5,1.377,17.61,19.92,1.59,-89,82,2.4,0.35,34.41,2804.37,0.28855,1.0916,7.9218,0.7983,0.6431