ID,NAME,CAS,Formula,MW,Den,MV,RI,MRP,DC,D,Melting,Boiling,Viscosity,lnP,Vap_P,Henrys_C,sigma1,sigma2,sigma3,sigma4,sigma5
149,2-propen-1-amine,107-11-9,C3H7N,57,0.758,75.3,1.421,19.1,5.96,1.25,-88,55,0.53,0.29,270.44,2994.95,0.0019,2.728,5.9508,1.3474,0.5426
150,2-propen-1-ol,107-18-6,C3H6O,58,0.854,68,1.412,16.92,21,1.6,-129,97,2.56,0.13,36.97,3482.53,0.3421,2.2302,5.7705,1.4553,0.5361
151,2-propenenitrile,107-13-1,C3H3N,53,0.806,65.8,1.391,15.64,33.01,3.9,-84,78,0.45,-0.16,73.57,5223.07,0,2.5836,5.0073,2.1978,0.0407
152,2-undecanone,112-12-9,C11H22O,170,0.825,206.4,1.429,53.22,8.4,2.69,15,229,2.44,4.12,0.06,1479.86,0,2.1765,21.9036,1.5806,0.3575
153,"3,3-dimethyl-2-butanone",75-97-8,C6H12O,100,0.807,124.1,1.397,29.89,12.73,2.75,-53,106,0.52,1.33,34.21,2006.19,0,1.9181,11.2112,1.5498,0.3146
154,"3,3-dimethylpentane",562-49-2,C7H16,100,0.693,144.6,1.391,34.35,1.94,0,-135,86,0.33,3.9,211.66,1695.24,0,0.1326,16.0287,0.0057,0
155,"3,4-dimethylpyridine",583-58-4,C7H9N,107,0.955,112.2,1.511,33.61,11.47,1.87,-11,164,1.14,1.39,2.32,2374.04,0,2.889,10.9857,0.8655,0.5379
156,"1,1'-oxybis-2-ethoxy-ethane",112-36-7,C8H18O3,162,0.906,179.1,1.411,44.46,5.7,1.96,-44,187,1.66,1.58,0.06,1694.67,0,2.2639,18.2359,2.0037,1.2249
157,3-bromoaniline,591-19-5,C6H6BrN,172,1.579,108.9,1.626,38.56,13,2.99,18,251,3.21,1.69,0.03,3275.27,0.347,3.74,9.8765,1.8896,0.1202
158,3-bromopentane,1809-10-5,C5H11Br,151,1.211,124.7,1.443,33.07,8.37,2.29,-126,118,0.5,3.07,27.54,2039.31,0,1.412,12.1131,2.0599,0
159,3-bromopropene,106-95-6,C3H5Br,121,1.398,86.5,1.47,24.14,7,1.4,-119,71,0.44,1.76,87.56,3192.83,0,3.0687,6.5518,2.2386,0
160,3-bromopyridine,626-55-1,C5H4BrN,158,1.617,97.7,1.57,32.06,9.85,1.99,-27,173,1.54,1.42,1.14,3424.05,0,3.1841,9.7014,0.9265,0.3372
161,3-chlorobenzeneamine,108-42-9,C6H6ClN,128,1.214,105.1,1.594,35.66,13.4,2.43,-10,230,2.65,1.51,0.1,2932.79,0.3403,3.6706,9.4491,1.8774,0.1236
162,3-chloropropene,107-05-1,C3H5Cl,77,0.94,81.4,1.416,20.43,8.2,1.94,-135,45,0.38,1.56,278.8,2808.84,0,3.0252,6.0539,2.2724,0
163,3-chlorotoluene,108-41-8,C7H7Cl,127,1.072,118.1,1.522,36.01,5.55,1.6,-48,162,1.04,3.04,3.84,2172.55,0,2.8977,12.432,0.6815,0
164,3-ethylpentane,617-78-7,C7H16,100,0.699,143.4,1.394,34.28,1.94,0,-119,93,0.34,4.01,185.33,1693.94,0,0.108,16.3697,0.0002,0
165,3-heptanol,589-82-2,C7H16O,116,0.817,142.2,1.42,35.99,6.86,1.71,-70,157,3.47,2.66,1.24,1821.73,0.2338,0.8062,16.1579,0.7007,0.5141
166,3-heptanone,106-35-4,C7H14O,114,0.818,139.6,1.409,34.49,12.9,2.78,-37,147,0.76,2.1,7.48,1851.39,0,5.4652,8.0513,4.5991,0.0636
167,dmtt(dazomet),57-6-7,C4H5NS,99,1.017,97.5,1.527,29.97,17.2,3.3,-102,154,7.93,0.73,0,2957.82,0.3207,1.0125,11.5938,0.8713,0.6146
168,isopentanol,123-51-3,C5H12O,88,0.81,108.8,1.401,26.46,15.2,1.7,-134,130,3.87,1.4,4.47,2211.51,0,1.9973,9.8004,1.6051,0.3226
169,3-methyl-2-butanone,563-80-4,C5H10O,86,0.804,107.1,1.388,25.28,16.57,2.79,-92,94,0.46,0.92,67.58,2212.99,0.1952,3.2781,8.7341,2.9875,0.2089
170,3-methylaniline,108-44-1,C7H9N,107,0.999,107.3,1.567,35.04,5.95,1.3,-44,203,2.51,1.4,0.4,2731.64,0.6133,1.4796,10.0498,2.4548,0.1303
171,isovalericacid,503-74-2,C5H10O2,102,0.925,110.4,1.403,26.96,2.6,0.63,-29,176,5.57,1.26,1.39,2430.92,0,2.4622,13.8929,2.0903,0.2289
172,3-methyl-hexane,589-34-4,C7H16,100,0.69,145.2,1.389,34.33,1.93,0,-119,92,0.35,4.17,142.74,1685.06,0,0.1052,16.9964,0.0021,0
173,3-hydroxytoluene,108-39-4,C7H8O,108,1.034,104.6,1.54,32.8,11.5,1.6,11,203,5.49,1.85,0.28,2713.09,0.6502,2.4956,9.1501,2.6786,0.0361
174,3-picoline,108-99-6,C6H7N,93,0.957,97.4,1.507,28.97,11.1,2.41,-18,144,0.95,1.04,7.45,2689.46,0,2.9791,9.3148,0.8226,0.498
175,3-octanol,589-98-0,C8H18O,130,0.818,159.3,1.421,40.39,7.03,1.74,-45,175,4.2,3.23,0.47,1698.18,0.2334,0.8084,18.2101,0.714,0.5093
176,3-pentanone,96-22-0,C5H10O,86,0.815,105.7,1.392,25.17,17.3,2.7,-39,101,0.49,1.06,66.29,2215.52,0,2.0329,10.1091,1.4872,0.342
177,"n,n,4-trimethylaniline",99-97-8,C9H13N,135,0.937,144.4,1.547,45.77,3.9,1.23,-25,211,1.68,3.35,0.48,1944.94,0,2.7209,13.2801,2.9341,0
178,1-chloro-4-methylbenzene,106-43-4,C7H7Cl,127,1.071,118.2,1.521,35.99,6.08,2.21,7,162,1.04,3.02,3.98,2176.29,0,2.8811,12.4175,0.6676,0
179,4-ethylpyridine,536-75-4,C7H9N,107,0.941,113.9,1.502,33.61,10.98,2.65,-91,167,1.19,1.52,2.73,2331.27,0,2.7352,11.431,0.8189,0.5176
180,4-fluorotoluene,352-32-9,C7H7F,110,0.998,110.4,1.469,30.73,5.86,2,-57,116,0.74,2.68,27.07,2303.09,0,2.7589,11.0218,1.0309,0
181,4-heptanol,589-55-9,C7H16O,116,0.815,142.6,1.418,35.94,6.17,1.7,-42,155,3.11,2.7,0.84,1811.59,0.2336,0.7878,16.2418,0.7033,0.5085
182,4-heptanone,123-19-3,C7H14O,114,0.815,140.1,1.407,34.49,12.6,2.68,-33,144,0.57,2.21,9.19,1835.74,0,1.6817,14.4666,1.5266,0.3075
183,p-anisidine,104-94-9,C7H9NO,123,1.061,116.1,1.556,37.32,8.84,1.8,57,246,4.56,0.86,0.03,2964.45,0.1532,4.6182,8.0269,3.3973,0.2875
184,"4-methyl-1,3-pentadiene",926-56-7,C6H10,82,0.719,114.3,1.45,30.73,2.6,0.52,-70,76,0.37,2.87,233.05,2128.2,0,1.7508,11.042,1.7601,0
185,4-methyl-3-heptanol,14979-39-6,C8H18O,130,0.794,164,1.418,41.32,5.25,1.23,-123,170,3.47,3.15,1.05,1711.92,0.2641,0.8773,17.2369,0.673,0.4896
186,4-methyl-3-penten-2-one,141-79-7,C6H10O,98,0.858,114.4,1.444,30.39,15.1,3.28,-59,130,0.61,1.23,17.73,2245.18,0,2.6363,10.752,1.5491,0.3235
187,4-methylaniline,106-49-0,C7H9N,107,0.954,112.3,1.553,35.96,4.98,1.38,45,200,2.52,1.41,0.44,2699.71,0.1835,3.2268,8.9168,2.891,0.2179
188,4-methylpentanitrile,542-54-1,C6H11N,97,0.803,121,1.406,29.72,15,3.53,-51,154,0.7,1.23,5.2,2296.36,0,2.2996,11.1489,2.3003,0.1037
189,4-methylpyridine,108-89-4,C6H7N,93,0.957,97.3,1.505,28.86,12.28,2.7,4,145,0.96,0.99,6.78,2684,0,3.0701,9.2139,0.8074,0.5253
190,p-nitroanisole,100-17-4,C7H7NO3,153,1.219,125.6,1.571,41.25,27.98,5.26,54,259,3.1,1.92,0.01,2684.05,0,4.8789,8.8838,3.9862,0.0129
191,octan-4-ol,589-62-8,C8H18O,130,0.815,159.7,1.423,40.65,5.12,1.15,-41,177,3.96,3.27,0.51,1691.11,0.234,0.7894,18.2072,0.7038,0.5105
192,5-nonanone,502-56-7,C9H18O,142,0.818,173.9,1.42,44,10.6,2.71,-50,188,0.95,3.19,1.1,1618.72,0,1.6633,18.3632,1.5162,0.3085
193,acenaphthene,83-32-9,C12H10,154,1.024,150.6,1.605,51.84,3,0.93,94,277,3.13,3.53,0.1,2008.75,0,3.1984,13.8007,2.0335,0
194,acetaldehydeoxime,107-29-9,C2H5NO,59,0.97,60.9,1.426,15.61,3.4,0.75,45,115,3.87,-0.17,15.47,4240.85,0.587,1.9906,4.953,2.0692,0.3158
195,aceticacid,64-19-7,C2H4O2,60,1.051,57.1,1.372,12.99,6.2,1.68,17,118,3.54,-0.47,6.36,4568.48,0.6156,2.1773,3.7194,2.5791,0.1727
196,aceticanhydride,108-24-7,C4H6O3,102,1.082,94.4,1.39,22.37,20,2.8,-73,139,0.78,0.35,1.6,3069.35,0,4.3632,5.7066,3.7543,0.0223
197,acetophenone,98-86-2,C8H8O,120,1.024,117.3,1.533,36.39,17.4,3.05,20,202,1.82,1.34,0.47,2574.02,0,4.0974,10.1538,1.6949,0.2091
198,acetylchloride,75-36-5,C2H3ClO,79,1.104,71.1,1.39,16.85,15.8,2.72,-112,52,0.36,1.21,245.56,3249.52,0,2.8587,5.5047,1.9484,0
199,aniline,62-53-3,C6H7N,93,1.022,91.1,1.583,30.45,6.7,1.51,-6,184,2.04,0.89,0.87,3324.26,0.225,3.4954,6.5633,3.0157,0.1897
200,anthracene,120-12-7,C14H10,178,1.25,142.6,1.595,48.44,2.35,0,218,340,6.89,3.91,0,2094.78,0,5.0605,15.2328,1.2665,0
201,benzaldehyde,100-52-7,C7H6O,106,1.042,101.9,1.546,32.28,17.8,2.89,-26,178,1.42,1.1,1.79,2922.69,0,3.872,8.7338,1.7424,0.1413
202,benzene,71-43-2,C6H6,78,0.879,88.9,1.501,26.2,2.28,0,6,80,0.58,2.05,102.17,2696.49,0,2.6909,7.9971,1.4491,0
203,benzoylchloride,98-88-4,C7H5ClO,141,1.212,116,1.554,37.15,23,3.26,-1,197,1.37,2.77,0.69,2454.19,0,3.4652,10.969,1.7651,0
204,aceticacidphenylmethylester,140-11-4,C9H10O2,150,1.057,142.1,1.523,43.4,5.1,1.22,-51,214,2.96,1.99,0.06,2268.05,0,5.3518,11.1362,3.0042,0.1584
205,benzylalcohol,100-51-6,C7H8O,108,1.044,103.6,1.54,32.5,13,1.71,-15,205,9.43,1.14,0.11,2777.1,0.3428,3.4727,8.8995,1.8971,0.4821
206,(chloromethyl)-benzene,100-44-7,C7H7Cl,127,1.1,115.1,1.539,36.05,7,1.82,-39,179,1.64,2.39,0.89,2441.54,0,4.219,9.4196,2.3651,0
207,benzylamine,100-46-9,C7H9N,107,0.982,109.2,1.544,34.45,4.6,1.1,10,185,1.67,1.2,1.06,2545.61,0.0013,4.0152,8.9591,1.9163,0.5678
208,biphenyl,92-52-4,C12H10,154,0.99,155.8,1.614,54.31,2.53,0,69,255,4.32,3.59,0.03,2176.26,0,4.6012,13.5139,1.8097,0
209,bis(2-chloroethyl)ether,111-44-4,C4H8Cl2O,143,1.219,117.3,1.457,31.95,20.79,2.43,-50,178,1.3,1.42,0.34,2506.93,0,5.4504,7.0505,4.0924,0.2233
210,bromobenzene,108-86-1,C6H5Br,157,1.492,105.2,1.559,33.98,5.4,1.55,-31,156,1.08,2.66,3.17,2853.99,0,3.2399,10.7588,0.5845,0
211,bromocyclohexane,108-85-0,C6H11Br,163,1.336,122,1.495,35.59,7.92,2.2,-57,164,0.97,2.97,3.14,1979.7,0,1.0652,12.275,2.2695,0
212,bromoethane,74-96-4,C2H5Br,109,1.47,74.1,1.425,18.95,4.9,2.04,-119,38,0.3,1.57,419.81,3098.89,0,2.0499,6.2411,2.0453,0
213,bromotrichloromethane,75-62-7,CBrCl3,198,2,99.1,1.506,29.45,2.47,0.4,-6,105,0.45,2.99,43.95,2554.01,0,1.3044,12.63,0,0
214,butanal,123-72-8,C4H8O,72,0.811,88.9,1.394,21.28,13.4,2.72,-96,75,0.39,0.68,266.2,2511.88,0,2.166,8.081,1.7293,0.1923
215,butane,106-97-8,C4H10,58,0.579,100.4,1.333,20.63,1.77,0,-138,-1,0.18,2.81,4055.42,2045.85,0,0.0682,11.682,0,0
216,butyronitrile,109-74-0,C4H7N,69,0.795,86.9,1.384,20.31,20.7,4.07,-112,118,0.46,0.26,34.15,3008.39,0,2.4474,7.4053,2.2948,0.1051
217,butanethiol,109-79-5,C4H10S,90,0.842,107.2,1.443,28.38,4.95,1.53,-116,98,0.5,2.42,58.77,2109.26,0,1.5735,11.0089,1.7525,0.0018
218,butyricacid,107-92-6,C4H8O2,88,0.96,91.8,1.398,22.16,2.8,1.65,-8,164,4.9,0.68,1.82,2809.86,0.6056,1.5856,8.2556,2.5376,0.1481
219,1-butanol,71-36-3,C4H10O,74,0.81,91.5,1.399,22.16,17.51,1.75,-90,118,2.92,0.97,11.77,2443.75,0.3209,0.9353,10.0594,0.8895,0.6241
220,butylphenylether,1126-79-0,C10H14O,150,0.934,160.8,1.497,47.06,3.73,1.19,-19,208,2.31,3.91,0.17,1810.09,0,2.9735,15.6817,2.4142,0.0166
221,1-butylamine,109-73-9,C4H11N,73,0.74,98.8,1.401,24.01,5.4,1,-49,77,0.49,1.21,153.76,2208.19,0,1.5537,10.6041,0.4939,0.5815
222,cs2,75-15-0,CS2,76,1.26,60.4,1.628,21.44,2.64,0,-112,46,0.25,2.31,888.62,3637.88,0,0.1082,9.8432,0,0
223,chlorobenzene,108-90-7,C6H5Cl,113,1.106,101.8,1.525,31.18,5.62,1.54,-45,132,0.86,2.5,12.24,2482.15,0,3.1312,10.4428,0.5267,0
224,chlorocyclohexane,542-18-7,C6H11Cl,119,0.989,119.9,1.462,32.97,7.6,2.19,-44,142,0.84,2.8,7.53,1854.1,0,0.9945,11.9681,2.1824,0
225,"cis-1,2-dichloroethene",156-59-2,C2H2Cl2,97,1.282,75.6,1.446,20.17,9.2,2.95,-80,60,0.32,1.78,366.62,2768.39,0,1.8803,8.9786,0.295,0
226,cis-decalin,493-01-6,C10H18,138,0.897,154.1,1.48,43.78,2.23,0,-43,193,1.28,4.35,3.06,1541.19,0,0.0288,18.1379,0.0027,0
227,isopropylbenzene,98-82-8,C9H12,120,0.857,140.3,1.491,40.62,2.38,0.65,-96,151,1.1,3.51,4.62,1920.88,0,2.1168,13.6997,1.7241,0
228,cycloheptatriene,544-25-2,C7H8,92,0.887,103.9,1.517,31.43,2.54,0.25,-80,116,0.79,2.43,28.7,2282.3,0,2.4097,9.32,2.022,0
229,cyclohexylamine,108-91-8,C6H13N,99,0.865,114.7,1.459,31.35,4.43,1.31,-18,135,1.29,1.57,9.86,1968.52,0,1.427,12.0594,0.4988,0.6121
230,cyclohexanecarboxylicacid,98-89-5,C7H12O2,128,1.025,125,1.454,33.84,2.67,0.9,31,233,13.32,1.69,0.06,2131.02,0.6059,0.8899,12.2461,2.5426,0.1429
231,cyclohexanol,108-93-0,C6H12O,100,0.949,105.5,1.465,29.18,15,1.85,26,161,6.08,1.3,0.93,2135.52,0.2958,0.774,11.7371,0.8176,0.6256
232,cyclohexene,110-83-8,C6H10,82,0.811,101.3,1.447,27.06,2.22,0.33,-104,83,0.47,2.74,178.45,1990.16,0,0.4225,11.5403,1.0163,0
233,aceticacidcyclohexylester,622-45-7,C8H14O2,142,0.97,146.6,1.442,38.79,5.08,1.9,-65,172,1.56,2.31,0.56,1790.26,0.3232,0.9139,14.095,0.8602,0.6183
234,aceticacidcyclohexylester,292-64-8,C8H16,112,0.834,134.6,1.459,36.78,2.12,0,15,149,0.78,3.86,19.58,1645.04,0,1.8597,14.3209,2.3065,0.2041
235,cyclooctane,629-20-9,C8H8,104,0.918,113.5,1.538,35.49,2.46,0.07,-5,141,1.18,2.5,6.04,2308,0,0.0239,16.1838,0.0007,0
236,"1,3,5,7-cyclooctatetraene",287-92-7,C5H10,70,0.745,94.1,1.406,23.13,1.84,0,-94,49,0.32,2.81,737.31,1967.04,0,3.2517,9.408,2.2915,0
237,cyclopentanone,120-92-3,C5H8O,84,0.95,88.5,1.437,23.2,14.45,3.28,-58,131,0.71,0.33,23.49,2406.25,0,2.1009,8.2737,1.7077,0.3661
238,carvon,99-49-0,C10H14O,150,0.961,156.3,1.497,45.74,11,3.17,89,230,2.7,2.01,0.06,1901.68,0,3.347,13.9657,2.3151,0.4097
239,n-decane,124-18-5,C10H22,142,0.73,194.9,1.408,48.08,1.95,0.07,-30,174,0.95,5.99,2.93,1437.47,0,0.0747,23.589,0.0039,0
240,1-decanol,112-30-1,C10H22O,158,0.83,190.8,1.437,49.98,8.1,1.6,6,233,15.92,4.15,0.01,1555.09,0.3214,0.9238,22.0178,0.8658,0.6156
241,di-n-butylsulfide,544-40-1,C8H18S,146,0.839,174.4,1.453,47.13,4.41,1.59,-80,189,0.93,4.36,1.06,1616.11,0,1.225,18.8695,1.8107,0.0245
242,dibenzofuran,132-64-9,C12H8O,168,1.089,154.5,1.608,53.42,3,0.86,82,285,4.71,3.69,0.02,2214.21,0,4.5789,13.6938,1.5619,0
243,dibenzylether,103-50-4,C14H14O,198,1.044,189.9,1.561,61.5,3.86,1.39,3,297,9.26,3.73,0,1885.65,0,5.6387,16.8008,2.8201,0.3696
244,ch2br2,74-95-3,CH2Br2,174,2.495,69.7,1.541,21.88,7.8,1.78,-53,97,0.5,1.64,44.84,4397.27,0,2.2843,7.7463,0.8667,0
245,decanedioicaciddibutylester,109-43-3,C18H34O4,314,0.941,334.2,1.443,88.55,4.54,2.64,-10,349,40.83,6.45,0,1203.17,0,3.5484,34.15,4.6371,0.3389
246,di-n-butylether,142-96-1,C8H18O,130,0.769,169.4,1.397,40.78,3.1,1.18,-95,142,0.57,4.05,6.21,1580.72,0,0.2562,19.5061,0.8201,0.3809
247,dibutylphthalate,84-74-2,C16H22O4,278,1.043,266.9,1.493,77.56,6.44,2.83,-35,340,22.94,4.62,0,1476.43,0,4.4145,25.3699,3.8996,0.1283
248,dibutylamine,111-92-2,C8H19N,129,0.767,168.5,1.415,42.23,3.2,0.98,-62,160,0.6,3.97,4.67,1578.86,0,0.797,19.658,0.3598,0.4792
249,ch2cl2,75-09-2,CH2Cl2,85,1.326,64.1,1.424,16.35,8.93,1.14,-97,39,0.32,1.23,483.81,3060.21,0,2.1306,6.8777,0.8382,0
250,diethanolamine,111-42-2,C4H11NO2,105,1.097,95.8,1.478,27.13,25.75,2.79,29,270,18.47,-0.7,0.02,2706.03,0.0172,3.3313,8.5372,1.7764,1.3147
251,"2,4,4-trimethyl-2-pentanethiol",141-5-9,C8H12O4,172,1.052,163.7,1.441,43.22,6.56,2.39,0,214,0.86,3.7,3.39,1618.17,0,1.3301,16.3804,1.6506,0.0164
252,diethylmaleate,141-05-9,C8H12O4,172,1.066,161.5,1.44,42.57,8.58,2.55,-11,220,2.76,1.73,0.02,2098.59,0,4.8923,12.4425,4.3421,0.1093
253,ethylsuccinate,123-25-1,C8H14O4,174,1.042,167.2,1.42,42.31,6.64,2.17,-21,218,2.54,1.79,0.02,1924.79,0,5.1538,12.6776,4.4865,0.1288
254,diethyldisulfide,110-81-6,C4H10S2,122,0.988,123.7,1.507,36.82,15.9,2.01,-102,152,0.71,3.09,5.79,2095.96,0,2.185,12.2194,1.937,0
255,ethyloxalat,95-92-1,C6H10O4,146,1.079,135.4,1.41,33.56,8.1,2.54,-40,183,1.53,1.3,0.44,2253.69,0,4.9522,9.7424,4.2673,0.0678
256,diethylmalonate,105-53-3,C7H12O4,160,1.055,151.8,1.414,37.94,7.87,2.57,-50,197,2.66,1.4,0.04,2118.58,0,5.0483,11.2793,4.4405,0.1119
257,diethylsulfide,352-93-2,C4H10S,90,0.835,108,1.442,28.58,7.2,1.52,-104,91,0.45,2.19,80.99,2187.65,0,1.7231,10.3729,1.853,0.0105
258,diethylamine,109-89-7,C4H11N,73,0.702,104.2,1.386,24.49,3.92,0.92,-50,55,0.42,1.8,318.2,2101.74,0,0.9019,11.6415,0.363,0.4687
259,diethyleneglycol,111-46-6,C4H10O3,106,1.118,94.9,1.445,25.26,31.7,2.31,-8,245,19.33,-0.95,0.03,2968.53,0.2841,3.3655,7.8201,2.0778,1.136
260,diiodomethane,75-11-6,CH2I2,268,3.322,80.6,1.74,32.52,5.3,1.15,6,181,0.84,1.99,2.21,3461.91,0,2.5828,9.054,0.9066,0
261,"2,4-dimethyl-3-thiapentane",625-80-9,C6H14S,118,0.814,145.3,1.439,38.17,5.81,1.67,-106,120,0.67,3.11,10.71,1831.48,0,1.2843,14.2376,1.8247,0.0433
262,diisopropylamine,108-18-9,C6H15N,101,0.71,142.5,1.392,33.94,3.04,1.2,-61,84,0.53,2.79,45.99,1790.08,0,0.9438,14.8351,0.2911,0.4439
263,dimethoxymethane,109-87-5,C3H8O2,76,0.86,88.5,1.353,19.19,2.7,0.91,-105,42,0.38,0.41,395.84,2508.92,0,2.3809,7.4939,1.5481,0.4864
264,dimethyldisulfide,624-92-0,C2H6S2,94,1.056,89.2,1.525,27.34,9.77,1.99,-85,110,0.52,2.05,28.69,2688.21,0,2.8412,8.0198,2.0139,0
265,dimethylphthalate,131-11-3,C10H10O4,194,1.19,163.2,1.515,49.21,8.5,2.66,2,283,7.37,1.71,0,2283.88,0,5.979,11.9547,4.0104,0.0951
266,dimethylmalonate,108-59-8,C5H8O4,132,1.119,118.1,1.42,29.88,10.3,1.52,-62,179,2.03,0.52,0.46,2728.4,0,5.5246,6.6417,4.543,0.0738
267,dimethylsulfate,77-78-1,C2H6O4S,126,1.322,95.4,1.386,22.41,50.28,4.02,-32,188,0.96,1.34,1.65,3060.39,0,4.4447,5.1452,4.3194,0
268,dimethylsulfide,75-18-3,C2H6S,62,0.842,73.8,1.435,19.26,6.3,1.5,-83,38,0.3,1.24,625.9,2746.48,0,1.9914,6.6373,1.7549,0.0175
269,dimethylcyanamide,1467-79-4,C3H6N2,70,0.88,79.7,1.41,19.73,37.23,4.77,-41,162,0.55,-1.04,4.23,3407.19,0,3.5131,5.6979,2.097,0.5017
270,dioxane,123-91-1,C4H8O2,88,1.034,85.2,1.422,21.68,2.25,0.45,12,101,0.96,-0.15,22.56,2604.65,0,2.8097,6.8387,1.7001,0.6925
271,di-n-pentylether,693-65-2,C10H22O,158,0.785,201.6,1.412,50.17,3.1,1.2,-69,188,1.05,5.09,0.55,1442.43,0,0.2419,23.5277,0.8227,0.3732
272,diphenylether,101-84-8,C12H10O,170,1.08,157.6,1.579,52.38,3.9,1.17,25,257,5.66,3.85,0.01,2108.01,0,5.0603,14.1079,2.0208,0
273,diphenylmethane,101-81-5,C13H12,168,1.006,167.2,1.575,55.26,2.61,0.26,91,263,5.87,3.9,0.01,1985.88,0,4.5268,14.5377,2.8357,0
274,di-n-propylether,111-43-3,C6H14O,102,0.7,146,1.381,33.89,3.39,1.12,-122,90,0.32,3.02,32.37,1770.86,0,0.3283,15.5305,0.807,0.3778
275,dipropylamine,142-84-7,C6H15N,101,0.74,136.7,1.405,33.52,2.9,1.04,-63,245,0.41,2.94,32.87,1768.23,0,0.8277,15.6483,0.3549,0.4786
276,dodecane,112-40-3,C12H26,170,0.749,227.4,1.422,57.74,2,0.07,-10,216,1.53,7.04,0.28,1336.65,0,0.0757,27.5696,0.0003,0
277,glycol,107-21-1,C2H6O2,62,1.115,55.7,1.429,14.35,37.7,2.27,-13,198,13.55,-1.34,0.22,4546.93,0.5717,2.6165,3.9524,1.6228,0.9899
278,ethanethiol,75-08-1,C2H6S,62,0.862,72.1,1.432,18.69,6.9,1.57,-148,35,0.32,1.3,544.32,2776.95,0,1.8583,6.7083,1.7822,0.0031
279,ethanol,64-17-5,C2H6O,46,0.789,58.4,1.361,12.93,24.55,1.66,-114,78,2.47,-0.22,57.83,3519.08,0.3211,1.1177,5.8638,0.8643,0.652
280,ethoxybenzene,103-73-1,C8H10O,122,0.967,126.3,1.507,37.6,4.22,1.41,-30,170,1.44,2.77,1.35,2175.98,0,3.4045,11.2596,2.4114,0.0224
281,2-hydroxypropanoicacidethylester,97-64-3,C5H10O3,118,1.03,114.7,1.415,28.72,13.1,2.55,-26,154,1.49,0.97,1.8,2237.29,0.0578,3.6179,9.1712,2.6309,0.5165
282,ethylacetoacetate,141-97-9,C6H10O3,130,1.028,126.6,1.419,31.97,15.7,2.96,-43,180,1.58,0.42,0.24,2477.98,0,5.0368,8.2689,4.129,0.2007
283,ethylacetate,141-78-6,C4H8O2,88,0.901,97.8,1.372,22.26,6.02,1.88,-84,77,0.46,0.78,71.18,2450.55,0,2.8923,7.89,2.3398,0.2232
284,ethylbenzoate,93-89-0,C9H10O2,150,1.05,143,1.505,42.42,6,2,-34,212,2.04,2.63,0.14,2131.28,0,3.9299,13.1373,2.0234,0.0917
285,ethylbutyrate,105-54-4,C6H12O2,116,0.879,132.2,1.392,31.47,5.1,1.76,-93,120,0.67,1.92,10.2,1955.52,0,2.2944,12.4916,2.3193,0.172
286,ethylchloroacetate,105-39-5,C4H7ClO2,123,1.159,105.7,1.421,26.81,12.78,2.65,-27,143,1.11,1.26,1.65,2576.15,0,3.8942,8.2132,3.1586,0.0832
287,cyanoaceticacidethylester,105-56-6,C5H7NO2,113,1.063,106.4,1.418,26.82,26.9,4.04,-23,207,2.32,-0.07,0.06,3626.31,0.0131,4.6796,6.754,4.303,0.0384
288,ethylformate,109-94-4,C3H6O2,74,0.917,80.8,1.359,17.78,8.4,1.94,-80,54,0.46,0.37,223.13,2979.07,0,2.7459,6.1139,2.3771,0.0988
289,ethylhexanoate,123-66-0,C8H16O2,144,0.871,165.6,1.407,40.76,4.57,1.6,-67,168,1.06,3.05,0.83,1696.84,0,2.2176,16.5363,2.2936,0.1768
290,ethylisothiocyanate,542-85-8,C3H5NS,87,1,87.1,1.51,26.06,19.5,3.31,-5,131,0.49,1.95,30.39,2947.44,0,2.4722,8.3994,2.2361,0
291,ethylnitrate,625-58-1,C2H5NO3,91,1.108,82.2,1.385,19.28,19.4,2.41,-95,88,0.35,2.01,396.32,2562.71,0,3.0909,6.1311,2.7761,0
292,ethylpropionate,105-37-3,C5H10O2,102,0.892,114.5,1.384,26.77,5.65,1.74,-73,98,0.52,1.46,20.56,2148.08,0,2.5083,10.2172,2.3221,0.1802
293,ethyl-2-hydroxybenzoate,118-61-6,C9H10O3,166,1.131,146.9,1.522,44.81,8.6,2.88,1,233,2.07,3.3,0.04,2020.12,0,4.1312,12.9401,2.6816,0.0273
294,ethylthiocyanate,542-90-5,C3H5NS,87,1.012,86.1,1.462,23.67,29.3,3.64,-86,146,0.57,0.67,8.1,3348.14,0,2.6999,7.6665,2.2246,0.0353
295,ethylbenzene,100-41-4,C8H10,106,0.867,122.5,1.493,35.59,2.41,0.58,-94,136,0.89,3.08,12.32,2072.54,0,2.1279,12.0268,1.7474,0
296,ethynylbenzene,536-74-3,C8H6,102,0.937,109,1.548,34.62,2.99,0.66,-45,143,1.25,2.51,3.06,2781.49,0.0517,3.5815,9.9791,1.6084,0
297,fluorobenzene,462-06-6,C6H5F,96,1.025,93.8,1.465,25.92,5.55,1.66,-40,85,0.62,2.15,80.44,2675.85,0,3.0448,9.0033,0.8798,0
298,formamide,75-12-7,CH3NO,45,1.133,39.8,1.447,10.62,84,3.71,2,210,4.62,-2.69,0.07,12709.91,0.8508,2.1177,2.3623,1.3861,0.9707